
     Program PWSCF v.5.3.0 starts on 13Jun2019 at 15: 3:24 

     This program is part of the open-source Quantum ESPRESSO suite
     for quantum simulation of materials; please cite
         "P. Giannozzi et al., J. Phys.:Condens. Matter 21 395502 (2009);
          URL http://www.quantum-espresso.org", 
     in publications or presentations arising from this work. More details at
     http://www.quantum-espresso.org/quote

     Parallel version (MPI), running on    32 processors
     R & G space division:  proc/nbgrp/npool/nimage =      32
     Reading input from si.scf.in

     Current dimensions of program PWSCF are:
     Max number of different atomic species (ntypx) = 10
     Max number of k-points (npk) =  40000
     Max angular momentum in pseudopotentials (lmaxx) =  3
               file Si.pbe-n-kjpaw_psl.1.0.0.UPF: wavefunction(s)  3S 3P renormalized

     Subspace diagonalization in iterative solution of the eigenvalue problem:
     a serial algorithm will be used

 
     Parallelization info
     --------------------
     sticks:   dense  smooth     PW     G-vecs:    dense   smooth      PW
     Min           5       5      1                   45       45       7
     Max           6       6      2                   48       48      11
     Sum         163     163     55                 1459     1459     283
 
     Message from routine sym_rho_init:
     likely internal error: no G-vectors found
     Message from routine sym_rho_init:
     likely internal error: no G-vectors found
     Message from routine sym_rho_init:
     likely internal error: no G-vectors found
     Message from routine sym_rho_init:
     likely internal error: no G-vectors found
     Message from routine sym_rho_init:
     likely internal error: no G-vectors found
     Message from routine sym_rho_init:
     likely internal error: no G-vectors found
     Message from routine sym_rho_init:
     likely internal error: no G-vectors found
     Message from routine sym_rho_init:
     likely internal error: no G-vectors found
     Message from routine sym_rho_init:
     likely internal error: no G-vectors found
     Message from routine sym_rho_init:
     likely internal error: no G-vectors found
     Message from routine sym_rho_init:
     likely internal error: no G-vectors found
     Message from routine sym_rho_init:
     likely internal error: no G-vectors found


     bravais-lattice index     =            2
     lattice parameter (alat)  =      10.2000  a.u.
     unit-cell volume          =     265.3020 (a.u.)^3
     number of atoms/cell      =            2
     number of atomic types    =            1
     number of electrons       =         8.00
     number of Kohn-Sham states=            4
     kinetic-energy cutoff     =      12.0000  Ry
     charge density cutoff     =      48.0000  Ry
     convergence threshold     =      1.0E-06
     mixing beta               =       0.7000
     number of iterations used =            8  plain     mixing
     Exchange-correlation      =  SLA  PW   PBX  PBC ( 1  4  3  4 0 0)

     celldm(1)=  10.200000  celldm(2)=   0.000000  celldm(3)=   0.000000
     celldm(4)=   0.000000  celldm(5)=   0.000000  celldm(6)=   0.000000

     crystal axes: (cart. coord. in units of alat)
               a(1) = (  -0.500000   0.000000   0.500000 )  
               a(2) = (   0.000000   0.500000   0.500000 )  
               a(3) = (  -0.500000   0.500000   0.000000 )  

     reciprocal axes: (cart. coord. in units 2 pi/alat)
               b(1) = ( -1.000000 -1.000000  1.000000 )  
               b(2) = (  1.000000  1.000000  1.000000 )  
               b(3) = ( -1.000000  1.000000 -1.000000 )  


     PseudoPot. # 1 for Si read from file:
     ../pseudo/Si.pbe-n-kjpaw_psl.1.0.0.UPF
     MD5 check sum: c39c59da582df4a0d9f10159256ea34e
     Pseudo is Projector augmented-wave + core cor, Zval =  4.0
     Generated using "atomic" code by A. Dal Corso  v.6.3
     Shape of augmentation charge: PSQ
     Using radial grid of 1141 points,  6 beta functions with: 
                l(1) =   0
                l(2) =   0
                l(3) =   1
                l(4) =   1
                l(5) =   2
                l(6) =   2
     Q(r) pseudized with 0 coefficients 


     atomic species   valence    mass     pseudopotential
        Si             4.00    28.08600     Si( 1.00)

     24 Sym. Ops. (no inversion) found
          (note: 24 additional sym.ops. were found but ignored
           their fractional translations are incommensurate with FFT grid)


   Cartesian axes

     site n.     atom                  positions (alat units)
         1           Si  tau(   1) = (   0.0000000   0.0000000   0.0000000  )
         2           Si  tau(   2) = (   0.2500000   0.2500000   0.2500000  )

     number of k points=     2
                       cart. coord. in units 2pi/alat
        k(    1) = (   0.2500000   0.2500000   0.2500000), wk =   0.5000000
        k(    2) = (   0.2500000   0.2500000   0.7500000), wk =   1.5000000

     Dense  grid:     1459 G-vectors     FFT dimensions: (  15,  15,  15)

     Largest allocated arrays     est. size (Mb)     dimensions
        Kohn-Sham Wavefunctions         0.00 Mb     (       9,    4)
        NL pseudopotentials             0.00 Mb     (       9,   36)
        Each V/rho on FFT grid          0.00 Mb     (     225)
        Each G-vector array             0.00 Mb     (      45)
        G-vector shells                 0.00 Mb     (      24)
     Largest temporary arrays     est. size (Mb)     dimensions
        Auxiliary wavefunctions         0.00 Mb     (       9,   16)
        Each subspace H/S matrix        0.00 Mb     (      16,   16)
        Each <psi_i|beta_j> matrix      0.00 Mb     (      36,    4)
        Arrays for rho mixing           0.03 Mb     (     225,    8)

     Check: negative/imaginary core charge=   -0.000066    0.000000

     Initial potential from superposition of free atoms

     starting charge    7.99888, renormalised to    8.00000
     Starting wfc are    8 randomized atomic wfcs
     Checking if some PAW data can be deallocated... 

     total cpu time spent up to now is        1.0 secs

     per-process dynamical memory:    22.7 Mb

     Self-consistent Calculation

     iteration #  1     ecut=    12.00 Ry     beta=0.70
     Davidson diagonalization with overlap
     ethr =  1.00E-02,  avg # of iterations =  2.0

     Threshold (ethr) on eigenvalues was too large:
     Diagonalizing with lowered threshold

     Davidson diagonalization with overlap
     ethr =  7.66E-04,  avg # of iterations =  1.0

     total cpu time spent up to now is        1.2 secs

     total energy              =     -93.42950980 Ry
     Harris-Foulkes estimate   =     -93.44435732 Ry
     estimated scf accuracy    <       0.06067263 Ry

     iteration #  2     ecut=    12.00 Ry     beta=0.70
     Davidson diagonalization with overlap
     ethr =  7.58E-04,  avg # of iterations =  1.0

     total cpu time spent up to now is        1.4 secs

     total energy              =     -93.43164071 Ry
     Harris-Foulkes estimate   =     -93.43183548 Ry
     estimated scf accuracy    <       0.00283527 Ry

     iteration #  3     ecut=    12.00 Ry     beta=0.70
     Davidson diagonalization with overlap
     ethr =  3.54E-05,  avg # of iterations =  2.5

     total cpu time spent up to now is        1.5 secs

     total energy              =     -93.43214717 Ry
     Harris-Foulkes estimate   =     -93.43219695 Ry
     estimated scf accuracy    <       0.00011330 Ry

     iteration #  4     ecut=    12.00 Ry     beta=0.70
     Davidson diagonalization with overlap
     ethr =  1.42E-06,  avg # of iterations =  2.5

     total cpu time spent up to now is        1.7 secs

     total energy              =     -93.43217547 Ry
     Harris-Foulkes estimate   =     -93.43219255 Ry
     estimated scf accuracy    <       0.00003434 Ry

     iteration #  5     ecut=    12.00 Ry     beta=0.70
     Davidson diagonalization with overlap
     ethr =  4.29E-07,  avg # of iterations =  2.0

     total cpu time spent up to now is        1.8 secs

     End of self-consistent calculation

          k = 0.2500 0.2500 0.2500 (   180 PWs)   bands (ev):

    -4.8428   2.4835   5.6894   5.6894

          k = 0.2500 0.2500 0.7500 (   186 PWs)   bands (ev):

    -2.8870   0.0034   2.8433   4.1947

     highest occupied level (ev):     5.6894

!    total energy              =     -93.43218026 Ry
     Harris-Foulkes estimate   =     -93.43218048 Ry
     estimated scf accuracy    <       0.00000052 Ry

     total all-electron energy =     -1160.123910 Ry

     The total energy is the sum of the following terms:

     one-electron contribution =       5.89343170 Ry
     hartree contribution      =       1.10202075 Ry
     xc contribution           =     -12.34165653 Ry
     ewald contribution        =     -16.89975858 Ry
     one-center paw contrib.   =     -71.18621761 Ry

     convergence has been achieved in   5 iterations

     Writing output data file SiPerf.save
 
     init_run     :      0.17s CPU      0.30s WALL (       1 calls)
     electrons    :      0.62s CPU      0.82s WALL (       1 calls)

     Called by init_run:
     wfcinit      :      0.00s CPU      0.03s WALL (       1 calls)
     potinit      :      0.12s CPU      0.14s WALL (       1 calls)

     Called by electrons:
     c_bands      :      0.03s CPU      0.05s WALL (       6 calls)
     sum_band     :      0.01s CPU      0.02s WALL (       6 calls)
     v_of_rho     :      0.01s CPU      0.01s WALL (       6 calls)
     newd         :      0.00s CPU      0.01s WALL (       6 calls)
     PAW_pot      :      0.66s CPU      0.79s WALL (       6 calls)
     mix_rho      :      0.00s CPU      0.00s WALL (       6 calls)

     Called by c_bands:
     init_us_2    :      0.00s CPU      0.00s WALL (      26 calls)
     cegterg      :      0.03s CPU      0.03s WALL (      12 calls)

     Called by sum_band:
     sum_band:bec :      0.00s CPU      0.00s WALL (      12 calls)
     addusdens    :      0.00s CPU      0.00s WALL (       6 calls)

     Called by *egterg:
     h_psi        :      0.02s CPU      0.02s WALL (      36 calls)
     s_psi        :      0.00s CPU      0.00s WALL (      36 calls)
     g_psi        :      0.00s CPU      0.00s WALL (      22 calls)
     cdiaghg      :      0.00s CPU      0.00s WALL (      32 calls)

     Called by h_psi:
     add_vuspsi   :      0.00s CPU      0.00s WALL (      36 calls)

     General routines
     calbec       :      0.00s CPU      0.01s WALL (      48 calls)
     fft          :      0.01s CPU      0.01s WALL (      80 calls)
     fftw         :      0.02s CPU      0.02s WALL (     336 calls)
     davcio       :      0.00s CPU      0.00s WALL (       2 calls)
 
     Parallel routines
     fft_scatter  :      0.02s CPU      0.03s WALL (     416 calls)
 
     PWSCF        :     1.58s CPU         2.12s WALL

 
   This run was terminated on:  15: 3:26  13Jun2019            

=------------------------------------------------------------------------------=
   JOB DONE.
=------------------------------------------------------------------------------=
